[CPU2006] [========== Running benchmark gamess ==========]
[CPU2006] Running ' SNIPER_APP_LD_PRELOAD=$LD_PRELOAD; unset LD_PRELOAD; /home/kleberkruger/PiCL/sniper/run-sniper -n 1 -m 'localhost' -d '/home/kleberkruger/PiCL/sniper/benchmarks/out/cpu2006/gamess/pikl/v2' -c picl-enabled -s stop-by-icount:1000000000 --roi --curdir=/home/kleberkruger/PiCL/sniper/benchmarks  --  /tmp/tmpLSrndw/gamess_base.sniper-x86_64 < cytosine.2.config ':
[CPU2006] [---------- Beginning of output ----------]
[SNIPER] Start
Executing Python script /home/kleberkruger/PiCL/sniper/benchmarks/out/cpu2006/gamess/pikl/v2/sim.scripts.py
[STOPBYICOUNT] Waiting for application ROI
[STOPBYICOUNT] Then stopping after simulating at least 1000000000 instructions in detail
[SNIPER] --------------------------------------------------------------------------------
[SNIPER] Sniper using SIFT/trace-driven frontend
[SNIPER] Running pre-ROI region in  CACHE_ONLY mode
[SNIPER] Running application ROI in DETAILED mode
[SNIPER] Running post-ROI region in FAST_FORWARD mode
[SNIPER] --------------------------------------------------------------------------------
[HOOKS] Entering ROI
[SNIPER] Enabling performance models
[STOPBYICOUNT] Application ROI started, now simulating 1000000000 in detail
[SNIPER] Setting instrumentation mode to DETAILED
          ******************************************************
          *         GAMESS VERSION = 12 DEC 2003 (R2)          *
          *             FROM IOWA STATE UNIVERSITY             *
          * M.W.SCHMIDT, K.K.BALDRIDGE, J.A.BOATZ, S.T.ELBERT, *
          *   M.S.GORDON, J.H.JENSEN, S.KOSEKI, N.MATSUNAGA,   *
          *          K.A.NGUYEN, S.J.SU, T.L.WINDUS,           *
          *       TOGETHER WITH M.DUPUIS, J.A.MONTGOMERY       *
          *         J.COMPUT.CHEM.  14, 1347-1363(1993)        *
          **************** SPEC-CPU2006 VERSION ****************

     SINCE 1993, STUDENTS AND POSTDOCS WORKING AT IOWA STATE UNIVERSITY
     AND ALSO IN THEIR VARIOUS JOBS AFTER LEAVING ISU HAVE MADE IMPORTANT
     CONTRIBUTIONS TO THE CODE:
     IVANA ADAMOVIC, CHRISTINE AIKENS, ROB BELL, PRADIPTA BANDYOPADHYAY,
     BRETT BODE, GALINA CHABAN, WEI CHEN, CHEOL HO CHOI, PAUL DAY,
     TIM DUDLEY, DMITRI FEDOROV, GRAHAM FLETCHER, MARK FREITAG,
     KURT GLAESEMANN, GRANT MERRILL, HEATHER NETZLOFF, RYAN OLSON,
     MIKE PAK, JIM SHOEMAKER, TETSUYA TAKETSUGU, SIMON WEBB.

     ADDITIONAL CODE HAS BEEN PROVIDED BY COLLABORATORS IN OTHER GROUPS:
     IOWA STATE UNIVERSITY: JOE IVANIC, KLAUS RUEDENBERG
     UNIVERSITY OF TOKYO: KIMIHIKO HIRAO, HARUYUKI NAKANO, TAKAHITO
          NAKAJIMA, TAKAO TSUNEDA, MUNEAKI KAMIYA, SUSUMU YANAGISAWA
     ODENSE UNIVERSITY: FRANK JENSEN
     UNIVERSITY OF IOWA: VISVALDAS KAIRYS, HUI LI
     NATIONAL INST. OF STANDARDS AND TECHNOLOGY: WALT STEVENS, DAVID GARMER
     UNIVERSITY OF PISA: BENEDETTA MENNUCCI, JACOPO TOMASI
     UNIVERSITY OF MEMPHIS: HENRY KURTZ, PRAKASHAN KORAMBATH
     UNIVERSITY OF ALBERTA: MARIUSZ KLOBUKOWSKI
     UNIVERSITY OF NEW ENGLAND: MARK SPACKMAN
     MIE UNIVERSITY: HIROAKI UMEDA
     MICHIGAN STATE UNIVERSITY: KAROL KOWALSKI, PIOTR PIECUCH
     UNIVERSITY OF SILESIA: MONIKA MUSIAL, STANISLAW KUCHARSKI
     FACULTES UNIVERSITAIRES NOTRE-DAME DE LA PAIX:
          OLIVIER QUINET, BENOIT CHAMPAGNE
     UNIVERSITY OF CALIFORNIA - SANTA BARBARA: BERNARD KIRTMAN

 EXECUTION OF GAMESS BEGUN 

            ECHO OF THE FIRST FEW INPUT CARDS -
 INPUT CARD>!   cytosine SCF test...xx AOs                                                  
 INPUT CARD>!                                                                               
 INPUT CARD>!   The FINAL energy=                                                           
 INPUT CARD>!   The Cartesian RMS gradient=                                                 
 INPUT CARD>!   This job takes xx seconds on a RS/6000 model 350                            
 INPUT CARD>!   This job was run 2/xx/94                                                    
 INPUT CARD>!                                                                               
 INPUT CARD> $contrl scftyp=rhf runtyp=gradient coord=zmt $end                              
 INPUT CARD> $system memory=400000 timlim=99999.0 $end                                      
 INPUT CARD> $basis  gbasis=TZV ngauss=6 ndfunc=1 npfunc=1 $end                             
 INPUT CARD> $guess  guess=huckel $end                                                      
 INPUT CARD> $scf    dirscf=.true. $end                                                     
 INPUT CARD> $data                                                                          
 INPUT CARD>cytosine...one of the bases found in nucleic acids...RHF/6-31G(d)//RHF/AM1      
 INPUT CARD>C1                                                                              
 INPUT CARD>C                                                                               
 INPUT CARD>C      1   1.4650373                                                            
 INPUT CARD>C      2   1.3716299  1   117.7958997                                           
 INPUT CARD>N      3   1.3647282  2   121.3155803  1      .3498173  0                       
 INPUT CARD>C      4   1.4396187  3   119.9661479  2      .2091058  0                       
 INPUT CARD>N      5   1.4011663  3    90.9801250  2      .2114610  0                       
 INPUT CARD>O      5   1.2468098  4   115.9883744  3   179.7178226  0                       
 INPUT CARD>N      1   1.3788003  2   118.0962168  3   176.8645647  0                       
 INPUT CARD>H      2   1.0941969  3   121.2004089  4   179.6832397  0                       
 INPUT CARD>H      3   1.1066467  4   117.1420349  5  -179.7448468  0                       
 INPUT CARD>H      4    .9940077  5   118.5566942  6  -179.8953981  0                       
 INPUT CARD>H      8    .9887008  1   117.8840921  2    15.7868234  0                       
 INPUT CARD>H      8    .9916901  1   119.8259677  2   173.2680833  0                       
 INPUT CARD> $end                                                                           
 INPUT CARD>                                                                                

 ..... DONE SETTING UP THE RUN .....
LOCMEM is    1   1
     400000 WORDS OF MEMORY AVAILABLE

     BASIS OPTIONS
     -------------
     GBASIS=TZV          IGAUSS=       0      POLAR=HONDO7  
     NDFUNC=       1     NFFUNC=       0     DIFFSP=       F
     NPFUNC=       1      DIFFS=       F


     RUN TITLE
     ---------
 cytosine...one of the bases found in nucleic acids...RHF/6-31G(d)//RHF/AM1      

 THE POINT GROUP OF THE MOLECULE IS C1      
 THE ORDER OF THE PRINCIPAL AXIS IS     0

 YOUR FULLY SUBSTITUTED Z-MATRIX IS
 C   
 C      1   1.4650373
 C      2   1.3716299  1  117.7959
 N      3   1.3647282  2  121.3156  1    0.3498  0
 C      4   1.4396187  3  119.9661  2    0.2091  0
 N      5   1.4011663  3   90.9801  2    0.2115  0
 O      5   1.2468098  4  115.9884  3  179.7178  0
 N      1   1.3788003  2  118.0962  3  176.8646  0
 H      2   1.0941969  3  121.2004  4  179.6832  0
 H      3   1.1066467  4  117.1420  5 -179.7448  0
 H      4   0.9940077  5  118.5567  6 -179.8954  0
 H      8   0.9887008  1  117.8841  2   15.7868  0
 H      8   0.9916901  1  119.8260  2  173.2681  0

 THE MOMENTS OF INERTIA ARE (AMU-ANGSTROM**2)
 IXX=   132.254   IYY=   260.759   IZZ=   392.883

 ATOM      ATOMIC                      COORDINATES (BOHR)
           CHARGE         X                   Y                   Z
 C           6.0     2.2669311020       -0.5218552546        0.0208873820
 C           6.0     2.0984851111        2.2415330640        0.0238416361
 C           6.0    -0.2635520984        3.3085380611       -0.0038847765
 N           7.0    -2.3920570783        1.8524273767       -0.0198536711
 C           6.0    -2.1831061295       -0.8599413366        0.0009643730
 N           7.0     0.2024344587       -2.0082848229        0.0391226293
 O           8.0    -4.2153816810       -2.0520661390       -0.0051871457
 N           7.0     4.6338080702       -1.6068482056       -0.0770887112
 H           1.0     3.8027918449        3.4123646305        0.0268311474
 H           1.0    -0.5267939208        5.3831438242       -0.0127726154
 H           1.0    -4.1059351672        2.6208280123       -0.0438769828
 H           1.0     6.1075364945       -0.5252265845        0.3089671055
 H           1.0     4.8168663786       -3.4626283179        0.1087347598

          INTERNUCLEAR DISTANCES (ANGS.)
          ------------------------------

                    C              C              C              N         

  1  C               0.0000000      1.4650373 *    2.4293715 *    2.7671998 *  
  2  C               1.4650373 *    0.0000000      1.3716299 *    2.3853090 *  
  3  C               2.4293715 *    1.3716299 *    0.0000000      1.3647282 *  
  4  N               2.7671998 *    2.3853090 *    1.3647282 *    0.0000000    
  5  C               2.3616684 *    2.7977262 *    2.4285103 *    1.4396187 *  
  6  N               1.3462286 *    2.4625907 *    2.8244187 *    2.4616677 *  
  7  O               3.5245987      4.0405291      3.5242186      2.2803670 *  
  8  N               1.3788003 *    2.4392768 *    3.6719913      4.1442601    
  9  H               2.2349198 *    1.0941969 *    2.1525794 *    3.3805993    
 10  H               3.4569107      2.1666011 *    1.1066467 *    2.1130820 *  
 11  H               3.7602904      3.2895627      2.0657207 *    0.9940077 *  
 12  H               2.0380711 *    2.5820785 *    3.9382449      4.6737003    
 13  H               2.0602627 *    3.3440594      4.4799794      4.7400498    

                    C              N              O              N         

  1  C               2.3616684 *    1.3462286 *    3.5245987      1.3788003 *  
  2  C               2.7977262 *    2.4625907 *    4.0405291      2.4392768 *  
  3  C               2.4285103 *    2.8244187 *    3.5242186      3.6719913    
  4  N               1.4396187 *    2.4616677 *    2.2803670 *    4.1442601    
  5  C               0.0000000      1.4011663 *    1.2468098 *    3.6291793    
  6  N               1.4011663 *    0.0000000      2.3380402 *    2.3553874 *  
  7  O               1.2468098 *    2.3380402 *    0.0000000      4.6888672    
  8  N               3.6291793      2.3553874 *    4.6888672      0.0000000    
  9  H               3.8916748      3.4435644      5.1347139      2.6927732 *  
 10  H               3.4179964      3.9304615      4.3921101      4.5979364    
 11  H               2.1044387 *    3.3467114      2.4735522 *    5.1375852    
 12  H               4.3938175      3.2250524      5.5245844      0.9887008 *  
 13  H               3.9523982      2.5605259 *    4.8379701      0.9916901 *  

                    H              H              H              H         

  1  C               2.2349198 *    3.4569107      3.7602904      2.0380711 *  
  2  C               1.0941969 *    2.1666011 *    3.2895627      2.5820785 *  
  3  C               2.1525794 *    1.1066467 *    2.0657207 *    3.9382449    
  4  N               3.3805993      2.1130820 *    0.9940077 *    4.6737003    
  5  C               3.8916748      3.4179964      2.1044387 *    4.3938175    
  6  N               3.4435644      3.9304615      3.3467114      3.2250524    
  7  O               5.1347139      4.3921101      2.4735522 *    5.5245844    
  8  N               2.6927732 *    4.5979364      5.1375852      0.9887008 *  
  9  H               0.0000000      2.5173965 *    4.2061933      2.4189868 *  
 10  H               2.5173965 *    0.0000000      2.3925372 *    4.7042249    
 11  H               4.2061933      2.3925372 *    0.0000000      5.6584159    
 12  H               2.4189868 *    4.7042249      5.6584159      0.0000000    
 13  H               3.6777089      5.4691731      5.7153132      1.7011424 *  

                    H         

  1  C               2.0602627 *  
  2  C               3.3440594    
  3  C               4.4799794    
  4  N               4.7400498    
  5  C               3.9523982    
  6  N               2.5605259 *  
  7  O               4.8379701    
  8  N               0.9916901 *  
  9  H               3.6777089    
 10  H               5.4691731    
 11  H               5.7153132    
 12  H               1.7011424 *  
 13  H               0.0000000    

  * ... LESS THAN  3.000


     ATOMIC BASIS SET
     ----------------
 THE CONTRACTED PRIMITIVE FUNCTIONS HAVE BEEN UNNORMALIZED
 THE CONTRACTED BASIS FUNCTIONS ARE NOW NORMALIZED TO UNITY

 SHELL TYPE PRIMITIVE    EXPONENT          CONTRACTION COEFFICIENTS

 C         

   1   S    1          9471.0000000      0.000776000185
   1   S    2          1398.0000000      0.006218001481
   1   S    3           307.5000000      0.033575007997
   1   S    4            84.5400000      0.134278031981
   1   S    5            26.9100000      0.393668093760
   1   S    6             9.4090000      0.544169129605

   2   S    7             9.4090000      0.248075019298
   2   S    8             3.5000000      0.782844060899

   3   S    9             1.0680000      1.000000000000

   4   S   10             0.4002000      1.000000000000

   5   S   11             0.1351000      1.000000000000

   6   P   12            25.3700000      0.016294995820
   6   P   13             5.7760000      0.102097973810
   6   P   14             1.7870000      0.340227912727
   6   P   15             0.6577000      0.668268828580

   7   P   16             0.2480000      1.000000000000

   8   P   17             0.0910600      1.000000000000

   9   D   18             0.7200000      1.000000000000

 C         

  10   S   19          9471.0000000      0.000776000185
  10   S   20          1398.0000000      0.006218001481
  10   S   21           307.5000000      0.033575007997
  10   S   22            84.5400000      0.134278031981
  10   S   23            26.9100000      0.393668093760
  10   S   24             9.4090000      0.544169129605

  11   S   25             9.4090000      0.248075019298
  11   S   26             3.5000000      0.782844060899

  12   S   27             1.0680000      1.000000000000

  13   S   28             0.4002000      1.000000000000

  14   S   29             0.1351000      1.000000000000

  15   P   30            25.3700000      0.016294995820
  15   P   31             5.7760000      0.102097973810
  15   P   32             1.7870000      0.340227912727
  15   P   33             0.6577000      0.668268828580

  16   P   34             0.2480000      1.000000000000

  17   P   35             0.0910600      1.000000000000

  18   D   36             0.7200000      1.000000000000

 C         

  19   S   37          9471.0000000      0.000776000185
  19   S   38          1398.0000000      0.006218001481
  19   S   39           307.5000000      0.033575007997
  19   S   40            84.5400000      0.134278031981
  19   S   41            26.9100000      0.393668093760
  19   S   42             9.4090000      0.544169129605

  20   S   43             9.4090000      0.248075019298
  20   S   44             3.5000000      0.782844060899

  21   S   45             1.0680000      1.000000000000

  22   S   46             0.4002000      1.000000000000

  23   S   47             0.1351000      1.000000000000

  24   P   48            25.3700000      0.016294995820
  24   P   49             5.7760000      0.102097973810
  24   P   50             1.7870000      0.340227912727
  24   P   51             0.6577000      0.668268828580

  25   P   52             0.2480000      1.000000000000

  26   P   53             0.0910600      1.000000000000

  27   D   54             0.7200000      1.000000000000

 N         

  28   S   55         13520.0000000      0.000760000458
  28   S   56          1999.0000000      0.006076003659
  28   S   57           440.0000000      0.032847019782
  28   S   58           120.9000000      0.132396079735
  28   S   59            38.4700000      0.393261236839
  28   S   60            13.4600000      0.546339329029

  29   S   61            13.4600000      0.252036044515
  29   S   62             4.9930000      0.779385137657

  30   S   63             1.5690000      1.000000000000

  31   S   64             0.5800000      1.000000000000

  32   S   65             0.1923000      1.000000000000

  33   P   66            35.9100000      0.016915996090
  33   P   67             8.4800000      0.102199976379
  33   P   68             2.7060000      0.338133921850
  33   P   69             0.9921000      0.669280845314

  34   P   70             0.3727000      1.000000000000

  35   P   71             0.1346000      1.000000000000

  36   D   72             0.9800000      1.000000000000

 C         

  37   S   73          9471.0000000      0.000776000185
  37   S   74          1398.0000000      0.006218001481
  37   S   75           307.5000000      0.033575007997
  37   S   76            84.5400000      0.134278031981
  37   S   77            26.9100000      0.393668093760
  37   S   78             9.4090000      0.544169129605

  38   S   79             9.4090000      0.248075019298
  38   S   80             3.5000000      0.782844060899

  39   S   81             1.0680000      1.000000000000

  40   S   82             0.4002000      1.000000000000

  41   S   83             0.1351000      1.000000000000

  42   P   84            25.3700000      0.016294995820
  42   P   85             5.7760000      0.102097973810
  42   P   86             1.7870000      0.340227912727
  42   P   87             0.6577000      0.668268828580

  43   P   88             0.2480000      1.000000000000

  44   P   89             0.0910600      1.000000000000

  45   D   90             0.7200000      1.000000000000

 N         

  46   S   91         13520.0000000      0.000760000458
  46   S   92          1999.0000000      0.006076003659
  46   S   93           440.0000000      0.032847019782
  46   S   94           120.9000000      0.132396079735
  46   S   95            38.4700000      0.393261236839
  46   S   96            13.4600000      0.546339329029

  47   S   97            13.4600000      0.252036044515
  47   S   98             4.9930000      0.779385137657

  48   S   99             1.5690000      1.000000000000

  49   S  100             0.5800000      1.000000000000

  50   S  101             0.1923000      1.000000000000

  51   P  102            35.9100000      0.016915996090
  51   P  103             8.4800000      0.102199976379
  51   P  104             2.7060000      0.338133921850
  51   P  105             0.9921000      0.669280845314

  52   P  106             0.3727000      1.000000000000

  53   P  107             0.1346000      1.000000000000

  54   D  108             0.9800000      1.000000000000

 O         

  55   S  109         18050.0000000      0.000756999830
  55   S  110          2660.0000000      0.006065998635
  55   S  111           585.7000000      0.032781992623
  55   S  112           160.9000000      0.132608970160
  55   S  113            51.1600000      0.396838910703
  55   S  114            17.9000000      0.542571877910

  56   S  115            17.9000000      0.262489933687
  56   S  116             6.6390000      0.769827805517

  57   S  117             2.0770000      1.000000000000

  58   S  118             0.7736000      1.000000000000

  59   S  119             0.2558000      1.000000000000

  60   P  120            49.8300000      0.016357993061
  60   P  121            11.4900000      0.106452954840
  60   P  122             3.6090000      0.349301851817
  60   P  123             1.3210000      0.657182721206

  61   P  124             0.4821000      1.000000000000

  62   P  125             0.1651000      1.000000000000

  63   D  126             1.2800000      1.000000000000

 N         

  64   S  127         13520.0000000      0.000760000458
  64   S  128          1999.0000000      0.006076003659
  64   S  129           440.0000000      0.032847019782
  64   S  130           120.9000000      0.132396079735
  64   S  131            38.4700000      0.393261236839
  64   S  132            13.4600000      0.546339329029

  65   S  133            13.4600000      0.252036044515
  65   S  134             4.9930000      0.779385137657

  66   S  135             1.5690000      1.000000000000

  67   S  136             0.5800000      1.000000000000

  68   S  137             0.1923000      1.000000000000

  69   P  138            35.9100000      0.016915996090
  69   P  139             8.4800000      0.102199976379
  69   P  140             2.7060000      0.338133921850
  69   P  141             0.9921000      0.669280845314

  70   P  142             0.3727000      1.000000000000

  71   P  143             0.1346000      1.000000000000

  72   D  144             0.9800000      1.000000000000

 H         

  73   S  145            33.6400000      0.025373656982
  73   S  146             5.0580000      0.189681435760
  73   S  147             1.1470000      0.852921469637

  74   S  148             0.3211000      1.000000000000

  75   S  149             0.1013000      1.000000000000

  76   P  150             1.0000000      1.000000000000

 H         

  77   S  151            33.6400000      0.025373656982
  77   S  152             5.0580000      0.189681435760
  77   S  153             1.1470000      0.852921469637

  78   S  154             0.3211000      1.000000000000

  79   S  155             0.1013000      1.000000000000

  80   P  156             1.0000000      1.000000000000

 H         

  81   S  157            33.6400000      0.025373656982
  81   S  158             5.0580000      0.189681435760
  81   S  159             1.1470000      0.852921469637

  82   S  160             0.3211000      1.000000000000

  83   S  161             0.1013000      1.000000000000

  84   P  162             1.0000000      1.000000000000

 H         

  85   S  163            33.6400000      0.025373656982
  85   S  164             5.0580000      0.189681435760
  85   S  165             1.1470000      0.852921469637

  86   S  166             0.3211000      1.000000000000

  87   S  167             0.1013000      1.000000000000

  88   P  168             1.0000000      1.000000000000

 H         

  89   S  169            33.6400000      0.025373656982
  89   S  170             5.0580000      0.189681435760
  89   S  171             1.1470000      0.852921469637

  90   S  172             0.3211000      1.000000000000

  91   S  173             0.1013000      1.000000000000

  92   P  174             1.0000000      1.000000000000

 TOTAL NUMBER OF BASIS SET SHELLS             =   92
 NUMBER OF CARTESIAN GAUSSIAN BASIS FUNCTIONS =  190
 NUMBER OF ELECTRONS                          =   58
 CHARGE OF MOLECULE                           =    0
 SPIN MULTIPLICITY                            =    1
 NUMBER OF OCCUPIED ORBITALS (ALPHA)          =   29
 NUMBER OF OCCUPIED ORBITALS (BETA )          =   29
 TOTAL NUMBER OF ATOMS                        =   13
 THE NUCLEAR REPULSION ENERGY IS      351.0533037396

     $CONTRL OPTIONS
     ---------------
 SCFTYP=RHF          RUNTYP=GRADIENT     EXETYP=RUN     
 MPLEVL=       0     CITYP =NONE         CCTYP =NONE    
 MULT  =       1     ICHARG=       0     NZVAR =       0     COORD =ZMT     
 ECP   =NONE         RELWFN=NONE         LOCAL =NONE         NUMGRD=       F
 ISPHER=      -1     NOSYM =       0     MAXIT =      30     UNITS =ANGS    
 PLTORB=       F     MOLPLT=       F     AIMPAC=       F     FRIEND=        
 NPRINT=       7     IREST =       0     GEOM  =INPUT   
 NORMF =       0     NORMP =       0     ITOL  =      20     ICUT  =       9
 INTTYP=POPLE        QMTTOL= 1.0E-06

     $SYSTEM OPTIONS
     ---------------
  REPLICATED MEMORY=      400000 WORDS (ON EVERY NODE).
 DISTRIBUTED MEMDDI=           0 MILLION WORDS IN AGGREGATE,
 MEMDDI DISTRIBUTED OVER   1 PROCESSORS IS           0 WORDS/PROCESSOR.
 TOTAL MEMORY REQUESTED ON EACH PROCESSOR=      400000 WORDS.
 TIMLIM=   5999940.0 SECONDS.
 COREFL=F     KDIAG= 0

          ----------------
          PROPERTIES INPUT
          ----------------

     MOMENTS            FIELD           POTENTIAL          DENSITY
 IEMOM =       1   IEFLD =       0   IEPOT =       0   IEDEN =       0
 WHERE =COMASS     WHERE =NUCLEI     WHERE =NUCLEI     WHERE =NUCLEI  
 OUTPUT=BOTH       OUTPUT=BOTH       OUTPUT=BOTH       OUTPUT=BOTH    
 IEMINT=       0   IEFINT=       0                     IEDINT=       0
                                                       MORB  =       0
          EXTRAPOLATION IN EFFECT
          SOSCF IN EFFECT

     -------------------------------
     INTEGRAL TRANSFORMATION OPTIONS
     -------------------------------
     NWORD  =       0     CUTOFF = 1.0E-09
     MPTRAN =       0     DIRTRF =       T
     AOINTS =DUP     

          ----------------------
          INTEGRAL INPUT OPTIONS
          ----------------------
 NOPK  =       1 NORDER=       0 SCHWRZ=       T

   --- ENCODED Z MATRIX ---
 COORD  TYPE   I   J   K   L   M   N
    1      1    2   1
    2      1    3   2
    3      2    3   2   1
    4      1    4   3
    5      2    4   3   2
    6      3    4   3   2   1
    7      1    5   4
    8      2    5   4   3
    9      3    5   4   3   2
   10      1    6   5
   11      2    6   5   3
   12      3    6   5   3   2
   13      1    7   5
   14      2    7   5   4
   15      3    7   5   4   3
   16      1    8   1
   17      2    8   1   2
   18      3    8   1   2   3
   19      1    9   2
   20      2    9   2   3
   21      3    9   2   3   4
   22      1   10   3
   23      2   10   3   4
   24      3   10   3   4   5
   25      1   11   4
   26      2   11   4   5
   27      3   11   4   5   6
   28      1   12   8
   29      2   12   8   1
   30      3   12   8   1   2
   31      1   13   8
   32      2   13   8   1
   33      3   13   8   1   2

 THE DETERMINANT OF THE G MATRIX IS 10**(   -29)

     ------------------------------------------
[STOPBYICOUNT] Ending ROI after 1019581425 instructions (1000000000 requested)
[SNIPER] Disabling performance models
[SNIPER] Leaving ROI after 2052.88 seconds
[SNIPER] Simulated 1019.6M instructions, 586.2M cycles, 1.74 IPC
[SNIPER] Simulation speed 496.7 KIPS (496.7 KIPS / target core - 2013.5ns/instr)
[SNIPER] Sampling: executed 99.93% of simulated time in detailed mode
[SNIPER] Setting instrumentation mode to FAST_FORWARD
[SNIPER] End
[SNIPER] Elapsed time: 2059.60 seconds
[RECORD-TRACE] Using the Pin frontend (sift/recorder)
[CPU2006] [----------    End of output    ----------]
[CPU2006] Done.
